 VARIABLES = "X","Y","PM","PMAX","PMIN"
 ZONE I=           44 ,J=           55 ,F=POINT
    0.000000000000000         0.000000000000000         10000.00000000000      
    10000.00000000000         10000.00000000000     
   0.1000000000000000         0.000000000000000         10000.00000000000      
    10000.00000000000         10000.00000000000     
   0.2000000000000000         0.000000000000000         10000.00000000000      
    10000.00000000000         10000.00000000000     
   0.3000000000000000         0.000000000000000         10000.00000000000      
    10000.00000000000         10000.00000000000     
   0.4000000000000000         0.000000000000000         10000.00000000000      
    10000.00000000000         10000.00000000000     
   0.5000000000000000         0.000000000000000         10000.00000000000      
    10000.00000000000         10000.00000000000     
   0.6000000000000001         0.000000000000000         10000.00000000000      
    10000.00000000000         10000.00000000000     
   0.7000000000000001         0.000000000000000         10000.00000000000      
    10000.00000000000         10000.00000000000     
   0.8000000000000000         0.000000000000000         10000.00000000000      
    10000.00000000000         10000.00000000000     
   0.9000000000000000         0.000000000000000         10000.00000000000      
    10000.00000000000         10000.00000000000     
    1.000000000000000         0.000000000000000       -0.3028107033530936      
    1.958861536023135        -2.401616072168577     
    1.100000000000000         0.000000000000000       -0.5766390254859312      
    1.635460499732294        -2.757334895347559     
    1.200000000000000         0.000000000000000       -0.6297036425924211      
    1.637519499215608        -2.805751991230609     
    1.300000000000000         0.000000000000000       -0.6584934875206733      
    1.590894191303546        -2.841551342136658     
    1.400000000000000         0.000000000000000       -0.6773733167970080      
    1.470464667028846        -2.890447586511623     
    1.500000000000000         0.000000000000000       -0.6761819786628104      
    1.413537695417044        -2.777676518593461     
    1.600000000000000         0.000000000000000       -0.6442595658920331      
    1.457811334992549        -2.667208760528706     
    1.700000000000000         0.000000000000000       -0.5926208698299554      
    1.480933353231629        -2.502119794234819     
    1.800000000000000         0.000000000000000       -0.5307769475172780      
    1.444786163429229        -2.377881121044828     
    1.900000000000000         0.000000000000000       -0.4671854461275531      
    1.375679392441896        -2.296311112044405     
    2.000000000000000         0.000000000000000       -0.4092561748324202      
    1.335877905898942        -2.210792031283657     
    2.100000000000000         0.000000000000000       -0.3610311134976278      
    1.374383085943441        -2.158124920103597     
    2.200000000000000         0.000000000000000       -0.3211126631165824      
    1.427307177319861        -2.154788269781260     
    2.300000000000000         0.000000000000000       -0.2921097717739806      
    1.468338181714184        -2.144084205633085     
    2.400000000000000         0.000000000000000       -0.2660379350671000      
    1.491036091642243        -2.143228834098204     
    2.500000000000000         0.000000000000000       -0.2430389781954642      
    1.495657024275871        -2.123903328661151     
    2.600000000000000         0.000000000000000       -0.2291090530570531      
    1.487284086867025        -2.073450358140975     
    2.700000000000000         0.000000000000000       -0.2171398572949435      
    1.485789392986479        -2.067807871859936     
    2.800000000000000         0.000000000000000       -0.2123175384640525      
    1.494596993100782        -2.033360866937702     
    2.900000000000000         0.000000000000000       -0.2069221783099894      
    1.482779353958735        -1.983984988944490     
    3.000000000000000         0.000000000000000       -0.2068326697107777      
    1.461724146493728        -1.936958716467225     
    3.100000000000000         0.000000000000000       -0.2091741963426183      
    1.424157042599988        -1.917757038262231     
    3.200000000000000         0.000000000000000       -0.2224391392085164      
    1.376977678202809        -1.914907746934116     
    3.300000000000000         0.000000000000000       -0.2456442576803634      
    1.307311275814907        -1.926111316224280     
    3.400000000000000         0.000000000000000         10000.00000000000      
    10000.00000000000         10000.00000000000     
    3.500000000000000         0.000000000000000         10000.00000000000      
    10000.00000000000         10000.00000000000     
    3.600000000000000         0.000000000000000         10000.00000000000      
    10000.00000000000         10000.00000000000     
    3.700000000000000         0.000000000000000         10000.00000000000      
    10000.00000000000         10000.00000000000     
    3.800000000000000         0.000000000000000         10000.00000000000      
    10000.00000000000         10000.00000000000     
    3.900000000000000         0.000000000000000         10000.00000000000      
    10000.00000000000         10000.00000000000     
    4.000000000000000         0.000000000000000         10000.00000000000      
    10000.00000000000         10000.00000000000     
    4.100000000000001         0.000000000000000         10000.00000000000      
    10000.00000000000         10000.00000000000     
    4.200000000000000         0.000000000000000         10000.00000000000      
    10000.00000000000         10000.00000000000     
    4.300000000000000         0.000000000000000         10000.00000000000      
    10000.00000000000         10000.00000000000     
    0.000000000000000        0.1000000000000000         10000.00000000000      
    10000.00000000000         10000.00000000000     
   0.1000000000000000        0.1000000000000000         10000.00000000000      
    10000.00000000000         10000.00000000000     
   0.2000000000000000        0.1000000000000000         10000.00000000000      
    10000.00000000000         10000.00000000000     
   0.3000000000000000        0.1000000000000000         10000.00000000000      
    10000.00000000000         10000.00000000000     
   0.4000000000000000        0.1000000000000000         10000.00000000000      
    10000.00000000000         10000.00000000000     
   0.5000000000000000        0.1000000000000000         10000.00000000000      
    10000.00000000000         10000.00000000000     
   0.6000000000000001        0.1000000000000000         10000.00000000000      
    10000.00000000000         10000.00000000000     
   0.7000000000000001        0.1000000000000000         10000.00000000000      
    10000.00000000000         10000.00000000000     
   0.8000000000000000        0.1000000000000000         10000.00000000000      
    10000.00000000000         10000.00000000000     
   0.9000000000000000        0.1000000000000000         10000.00000000000      
    10000.00000000000         10000.00000000000     
    1.000000000000000        0.1000000000000000       -0.5677041828680206      
    1.688426469690442        -2.669382135582081     
    1.100000000000000        0.1000000000000000       -0.7097952168232002      
    1.578152400737182        -3.004267504800307     
    1.200000000000000        0.1000000000000000       -0.6378760622146941      
    1.606800606540620        -2.800654269651667     
    1.300000000000000        0.1000000000000000       -0.6445607367402592      
    1.620112562876182        -2.854887708144517     
    1.400000000000000        0.1000000000000000       -0.6693274430456868      
    1.474705390749425        -2.919578690257793     
    1.500000000000000        0.1000000000000000       -0.6600966897840951      
    1.414975755083136        -2.795502439855595     
    1.600000000000000        0.1000000000000000       -0.6251165244869872      
    1.522808325826902        -2.670784119963746     
    1.700000000000000        0.1000000000000000       -0.5674368760081916      
    1.569064384835933        -2.452485684069616     
    1.800000000000000        0.1000000000000000       -0.4999085523091334      
    1.487141525708126        -2.337220153482527     
    1.900000000000000        0.1000000000000000       -0.4293865695924466      
    1.347610646438960        -2.263539721897543     
    2.000000000000000        0.1000000000000000       -0.3723021518521425      
    1.390144916140142        -2.164407970792987     
    2.100000000000000        0.1000000000000000       -0.3295657987667630      
    1.440680988992735        -2.165388418856358     
    2.200000000000000        0.1000000000000000       -0.2906602807979828      
    1.501326518451483        -2.187300650815061     
    2.300000000000000        0.1000000000000000       -0.2709123918243798      
    1.534250749404285        -2.145565033213520     
    2.400000000000000        0.1000000000000000       -0.2456539020791715      
    1.563429199386086        -2.119469421999188     
    2.500000000000000        0.1000000000000000       -0.2288670979685760      
    1.570915736246475        -2.101274399132482     
    2.600000000000000        0.1000000000000000       -0.2203875134287552      
    1.530231757789337        -2.107475966792559     
    2.700000000000000        0.1000000000000000       -0.2100823598649555      
    1.505788506698091        -2.115945067091340     
    2.800000000000000        0.1000000000000000       -0.2088431398886213      
    1.491639897311991        -2.078315387504742     
    2.900000000000000        0.1000000000000000       -0.2040263635508477      
    1.475907315406737        -2.002678054157269     
    3.000000000000000        0.1000000000000000       -0.2063328075488359      
    1.467993135564059        -1.926449991516701     
    3.100000000000000        0.1000000000000000       -0.2053418761667348      
    1.423144821187857        -1.906250216068060     
    3.200000000000000        0.1000000000000000       -0.2291076835215448      
    1.360812407676419        -1.922658663677884     
    3.300000000000000        0.1000000000000000       -0.2653329160451536      
    1.283661790147377        -1.973773797540615     
    3.400000000000000        0.1000000000000000         10000.00000000000      
    10000.00000000000         10000.00000000000     
    3.500000000000000        0.1000000000000000         10000.00000000000      
    10000.00000000000         10000.00000000000     
    3.600000000000000        0.1000000000000000         10000.00000000000      
    10000.00000000000         10000.00000000000     
    3.700000000000000        0.1000000000000000         10000.00000000000      
    10000.00000000000         10000.00000000000     
    3.800000000000000        0.1000000000000000         10000.00000000000      
    10000.00000000000         10000.00000000000     
    3.900000000000000        0.1000000000000000         10000.00000000000      
    10000.00000000000         10000.00000000000     
    4.000000000000000        0.1000000000000000         10000.00000000000      
    10000.00000000000         10000.00000000000     
    4.100000000000001        0.1000000000000000         10000.00000000000      
    10000.00000000000         10000.00000000000     
    4.200000000000000        0.1000000000000000         10000.00000000000      
    10000.00000000000         10000.00000000000     
    4.300000000000000        0.1000000000000000         10000.00000000000      
    10000.00000000000         10000.00000000000     
    0.000000000000000        0.2000000000000000         10000.00000000000      
    10000.00000000000         10000.00000000000     
   0.1000000000000000        0.2000000000000000         10000.00000000000      
    10000.00000000000         10000.00000000000     
   0.2000000000000000        0.2000000000000000         10000.00000000000      
    10000.00000000000         10000.00000000000     
   0.3000000000000000        0.2000000000000000         10000.00000000000      
    10000.00000000000         10000.00000000000     
   0.4000000000000000        0.2000000000000000         10000.00000000000      
    10000.00000000000         10000.00000000000     
   0.5000000000000000        0.2000000000000000         10000.00000000000      
    10000.00000000000         10000.00000000000     
   0.6000000000000001        0.2000000000000000         10000.00000000000      
    10000.00000000000         10000.00000000000     
   0.7000000000000001        0.2000000000000000         10000.00000000000      
    10000.00000000000         10000.00000000000     
   0.8000000000000000        0.2000000000000000         10000.00000000000      
    10000.00000000000         10000.00000000000     
   0.9000000000000000        0.2000000000000000         10000.00000000000      
    10000.00000000000         10000.00000000000     
    1.000000000000000        0.2000000000000000       -0.5910759443243722      
    1.670341214513248        -2.755276160708317     
    1.100000000000000        0.2000000000000000       -0.7534889290059441      
    1.632469932044723        -3.223031354267286     
    1.200000000000000        0.2000000000000000       -0.6763549032761236      
    1.526870897755087        -2.913400806565047     
    1.300000000000000        0.2000000000000000       -0.6906337492406432      
    1.568954369404766        -2.974512890856595     
    1.400000000000000        0.2000000000000000       -0.7045563048932658      
    1.542851043211157        -3.000160213867720     
    1.500000000000000        0.2000000000000000       -0.7000518404977591      
    1.452434192748694        -2.865310167932421     
    1.600000000000000        0.2000000000000000       -0.6592629480321396      
    1.642744664865226        -2.649296491932954     
    1.700000000000000        0.2000000000000000       -0.6078192359823892      
    1.587810191399648        -2.515815922916500     
    1.800000000000000        0.2000000000000000       -0.5498654327079759      
    1.344662658759741        -2.371030222911473     
    1.900000000000000        0.2000000000000000       -0.4899613048748865      
    1.311912467305576        -2.280752606358925     
    2.000000000000000        0.2000000000000000       -0.4413231784347407      
    1.297920910671837        -2.224178833335592     
    2.100000000000000        0.2000000000000000       -0.3952546419435086      
    1.354838306758311        -2.235577312864883     
    2.200000000000000        0.2000000000000000       -0.3472983249802549      
    1.435799514095140        -2.216244894663304     
    2.300000000000000        0.2000000000000000       -0.3099930837746190      
    1.508312923843843        -2.168370007565635     
    2.400000000000000        0.2000000000000000       -0.2816523570773662      
    1.554413778689606        -2.172094675226847     
    2.500000000000000        0.2000000000000000       -0.2559438969673294      
    1.556939882953510        -2.139970286430235     
    2.600000000000000        0.2000000000000000       -0.2430522192935380      
    1.569156387870416        -2.102026547803227     
    2.700000000000000        0.2000000000000000       -0.2283855574890039      
    1.565449086886652        -2.146318097290544     
    2.800000000000000        0.2000000000000000       -0.2224936475086610      
    1.540182809797175        -2.127113342539154     
    2.900000000000000        0.2000000000000000       -0.2140507357535416      
    1.518979382502671        -2.046720819238890     
    3.000000000000000        0.2000000000000000       -0.2151747977244923      
    1.477272606650323        -1.940708242005561     
    3.100000000000000        0.2000000000000000       -0.2110359795671277      
    1.436542512171628        -1.885419956798357     
    3.200000000000000        0.2000000000000000       -0.2309921501218851      
    1.389611044039710        -1.874115905020298     
    3.300000000000000        0.2000000000000000       -0.2579302897599893      
    1.314233039149074        -1.888603348055822     
    3.400000000000000        0.2000000000000000         10000.00000000000      
    10000.00000000000         10000.00000000000     
    3.500000000000000        0.2000000000000000         10000.00000000000      
    10000.00000000000         10000.00000000000     
    3.600000000000000        0.2000000000000000         10000.00000000000      
    10000.00000000000         10000.00000000000     
    3.700000000000000        0.2000000000000000         10000.00000000000      
    10000.00000000000         10000.00000000000     
    3.800000000000000        0.2000000000000000         10000.00000000000      
    10000.00000000000         10000.00000000000     
    3.900000000000000        0.2000000000000000         10000.00000000000      
    10000.00000000000         10000.00000000000     
    4.000000000000000        0.2000000000000000         10000.00000000000      
    10000.00000000000         10000.00000000000     
    4.100000000000001        0.2000000000000000         10000.00000000000      
    10000.00000000000         10000.00000000000     
    4.200000000000000        0.2000000000000000         10000.00000000000      
    10000.00000000000         10000.00000000000     
    4.300000000000000        0.2000000000000000         10000.00000000000      
    10000.00000000000         10000.00000000000     
    0.000000000000000        0.3000000000000000         10000.00000000000      
    10000.00000000000         10000.00000000000     
   0.1000000000000000        0.3000000000000000         10000.00000000000      
    10000.00000000000         10000.00000000000     
   0.2000000000000000        0.3000000000000000         10000.00000000000      
    10000.00000000000         10000.00000000000     
   0.3000000000000000        0.3000000000000000         10000.00000000000      
    10000.00000000000         10000.00000000000     
   0.4000000000000000        0.3000000000000000         10000.00000000000      
    10000.00000000000         10000.00000000000     
   0.5000000000000000        0.3000000000000000         10000.00000000000      
    10000.00000000000         10000.00000000000     
   0.6000000000000001        0.3000000000000000         10000.00000000000      
    10000.00000000000         10000.00000000000     
   0.7000000000000001        0.3000000000000000         10000.00000000000      
    10000.00000000000         10000.00000000000     
   0.8000000000000000        0.3000000000000000         10000.00000000000      
    10000.00000000000         10000.00000000000     
   0.9000000000000000        0.3000000000000000         10000.00000000000      
    10000.00000000000         10000.00000000000     
    1.000000000000000        0.3000000000000000       -0.5910356618855090      
    1.635515863374401        -2.784213337404576     
    1.100000000000000        0.3000000000000000       -0.8371439836390607      
    1.434542598109959        -3.434559639296705     
    1.200000000000000        0.3000000000000000       -0.7249885077391420      
    1.430083324684329        -3.164094744516408     
    1.300000000000000        0.3000000000000000       -0.7209540464110338      
    1.509900384525098        -2.973334716840010     
    1.400000000000000        0.3000000000000000       -0.7297916040060335      
    1.551159182802874        -3.067204448713716     
    1.500000000000000        0.3000000000000000       -0.7188344574330477      
    1.509780771795542        -2.849655714527822     
    1.600000000000000        0.3000000000000000       -0.6815094077584883      
    1.387033558613713        -2.667944328225009     
    1.700000000000000        0.3000000000000000       -0.6304848830314017      
    1.376239582231112        -2.572435669145411     
    1.800000000000000        0.3000000000000000       -0.5749633411747115      
    1.300046326887690        -2.502583077735904     
    1.900000000000000        0.3000000000000000       -0.5134313038240497      
    1.400176388453765        -2.380974497427296     
    2.000000000000000        0.3000000000000000       -0.4581958382616728      
    1.320840429659404        -2.285860443479941     
    2.100000000000000        0.3000000000000000       -0.4085821986540011      
    1.459700118743627        -2.247461661116509     
    2.200000000000000        0.3000000000000000       -0.3615998535781496      
    1.486453840270559        -2.247342516466674     
    2.300000000000000        0.3000000000000000       -0.3231681153081417      
    1.563521557813133        -2.229022599653038     
    2.400000000000000        0.3000000000000000       -0.2914317450172709      
    1.559228381836461        -2.216332231475994     
    2.500000000000000        0.3000000000000000       -0.2604106996373465      
    1.528010342897442        -2.156866359832541     
    2.600000000000000        0.3000000000000000       -0.2396230309820799      
    1.558457133227216        -2.091346903906540     
    2.700000000000000        0.3000000000000000       -0.2196304594132717      
    1.550675332358726        -2.087113312486196     
    2.800000000000000        0.3000000000000000       -0.2118001844505080      
    1.541879161484915        -2.084922864822695     
    2.900000000000000        0.3000000000000000       -0.2008655444800244      
    1.502126447262929        -1.998120883684042     
    3.000000000000000        0.3000000000000000       -0.2038364328213018      
    1.452503990314727        -1.938286903707100     
    3.100000000000000        0.3000000000000000       -0.2008110717437618      
    1.403548209024342        -1.868284361095988     
    3.200000000000000        0.3000000000000000       -0.2276348077201339      
    1.388064396636356        -1.842054194323484     
    3.300000000000000        0.3000000000000000       -0.2649851263990478      
    1.368014269568286        -1.967407005040577     
    3.400000000000000        0.3000000000000000         10000.00000000000      
    10000.00000000000         10000.00000000000     
    3.500000000000000        0.3000000000000000         10000.00000000000      
    10000.00000000000         10000.00000000000     
    3.600000000000000        0.3000000000000000         10000.00000000000      
    10000.00000000000         10000.00000000000     
    3.700000000000000        0.3000000000000000         10000.00000000000      
    10000.00000000000         10000.00000000000     
    3.800000000000000        0.3000000000000000         10000.00000000000      
    10000.00000000000         10000.00000000000     
    3.900000000000000        0.3000000000000000         10000.00000000000      
    10000.00000000000         10000.00000000000     
    4.000000000000000        0.3000000000000000         10000.00000000000      
    10000.00000000000         10000.00000000000     
    4.100000000000001        0.3000000000000000         10000.00000000000      
    10000.00000000000         10000.00000000000     
    4.200000000000000        0.3000000000000000         10000.00000000000      
    10000.00000000000         10000.00000000000     
    4.300000000000000        0.3000000000000000         10000.00000000000      
    10000.00000000000         10000.00000000000     
    0.000000000000000        0.4000000000000000         10000.00000000000      
    10000.00000000000         10000.00000000000     
   0.1000000000000000        0.4000000000000000         10000.00000000000      
    10000.00000000000         10000.00000000000     
   0.2000000000000000        0.4000000000000000         10000.00000000000      
    10000.00000000000         10000.00000000000     
   0.3000000000000000        0.4000000000000000         10000.00000000000      
    10000.00000000000         10000.00000000000     
   0.4000000000000000        0.4000000000000000         10000.00000000000      
    10000.00000000000         10000.00000000000     
   0.5000000000000000        0.4000000000000000         10000.00000000000      
    10000.00000000000         10000.00000000000     
   0.6000000000000001        0.4000000000000000         10000.00000000000      
    10000.00000000000         10000.00000000000     
   0.7000000000000001        0.4000000000000000         10000.00000000000      
    10000.00000000000         10000.00000000000     
   0.8000000000000000        0.4000000000000000         10000.00000000000      
    10000.00000000000         10000.00000000000     
   0.9000000000000000        0.4000000000000000         10000.00000000000      
    10000.00000000000         10000.00000000000     
    1.000000000000000        0.4000000000000000       -0.5229116077834185      
    1.801302652580539        -2.934727387731552     
    1.100000000000000        0.4000000000000000       -0.9270510078588089      
    1.428197888721243        -3.499355853250275     
    1.200000000000000        0.4000000000000000       -0.7849752567096320      
    1.519409080989515        -3.146218893434083     
    1.300000000000000        0.4000000000000000       -0.7388338602348677      
    1.505240516821633        -3.106466338783561     
    1.400000000000000        0.4000000000000000       -0.7336021156763549      
    1.624595745111758        -3.100600857265982     
    1.500000000000000        0.4000000000000000       -0.7267298215734078      
    1.444925400273368        -2.926893118970861     
    1.600000000000000        0.4000000000000000       -0.6974763648661840      
    1.392495260424536        -2.706500553847876     
    1.700000000000000        0.4000000000000000       -0.6504457605237622      
    1.411630082491882        -2.549287088947903     
    1.800000000000000        0.4000000000000000       -0.5986861163430508      
    1.328683702313826        -2.499335039031699     
    1.900000000000000        0.4000000000000000       -0.5338965909334683      
    1.278809208677927        -2.379711934726896     
    2.000000000000000        0.4000000000000000       -0.4704332944922092      
    1.334345361772379        -2.335643755115607     
    2.100000000000000        0.4000000000000000       -0.4242271655591462      
    1.387772950186783        -2.346848061627147     
    2.200000000000000        0.4000000000000000       -0.3779723276527160      
    1.425878362398557        -2.328237574898385     
    2.300000000000000        0.4000000000000000       -0.3351575816779434      
    1.470832014655865        -2.302242393278340     
    2.400000000000000        0.4000000000000000       -0.3010381563301230      
    1.460372311886670        -2.290783238840386     
    2.500000000000000        0.4000000000000000       -0.2690235374457003      
    1.494518859559268        -2.245510598220747     
    2.600000000000000        0.4000000000000000       -0.2479299719981930      
    1.528699327444854        -2.171886347708083     
    2.700000000000000        0.4000000000000000       -0.2286650386046283      
    1.513714244558655        -2.070447600616891     
    2.800000000000000        0.4000000000000000       -0.2205487198245748      
    1.517016044644487        -2.056297779112084     
    2.900000000000000        0.4000000000000000       -0.2090813705199119      
    1.498434644420457        -1.941951734723972     
    3.000000000000000        0.4000000000000000       -0.2109248076800339      
    1.473342218828200        -1.915556951183796     
    3.100000000000000        0.4000000000000000       -0.2055277923291290      
    1.419710794659053        -1.901734694704053     
    3.200000000000000        0.4000000000000000       -0.2319506637971009      
    1.354981731901020        -1.874474813682170     
    3.300000000000000        0.4000000000000000       -0.2674621216905592      
    1.325605056854916        -1.920800001486122     
    3.400000000000000        0.4000000000000000         10000.00000000000      
    10000.00000000000         10000.00000000000     
    3.500000000000000        0.4000000000000000         10000.00000000000      
    10000.00000000000         10000.00000000000     
    3.600000000000000        0.4000000000000000         10000.00000000000      
    10000.00000000000         10000.00000000000     
    3.700000000000000        0.4000000000000000         10000.00000000000      
    10000.00000000000         10000.00000000000     
    3.800000000000000        0.4000000000000000         10000.00000000000      
    10000.00000000000         10000.00000000000     
    3.900000000000000        0.4000000000000000         10000.00000000000      
    10000.00000000000         10000.00000000000     
    4.000000000000000        0.4000000000000000         10000.00000000000      
    10000.00000000000         10000.00000000000     
    4.100000000000001        0.4000000000000000         10000.00000000000      
    10000.00000000000         10000.00000000000     
    4.200000000000000        0.4000000000000000         10000.00000000000      
    10000.00000000000         10000.00000000000     
    4.300000000000000        0.4000000000000000         10000.00000000000      
    10000.00000000000         10000.00000000000     
    0.000000000000000        0.5000000000000000         10000.00000000000      
    10000.00000000000         10000.00000000000     