 VARIABLES = "X","Y","PM","PMAX","PMIN"
 ZONE I=           69 ,J=           87 ,F=POINT
    0.000000000000000         0.000000000000000         10000.00000000000      
    10000.00000000000         10000.00000000000     
   6.2500000000000000E-002    0.000000000000000         10000.00000000000      
    10000.00000000000         10000.00000000000     
   0.1250000000000000         0.000000000000000         10000.00000000000      
    10000.00000000000         10000.00000000000     
   0.1875000000000000         0.000000000000000         10000.00000000000      
    10000.00000000000         10000.00000000000     
   0.2500000000000000         0.000000000000000         10000.00000000000      
    10000.00000000000         10000.00000000000     
   0.3125000000000000         0.000000000000000         10000.00000000000      
    10000.00000000000         10000.00000000000     
   0.3750000000000000         0.000000000000000         10000.00000000000      
    10000.00000000000         10000.00000000000     
   0.4375000000000000         0.000000000000000         10000.00000000000      
    10000.00000000000         10000.00000000000     
   0.5000000000000000         0.000000000000000         10000.00000000000      
    10000.00000000000         10000.00000000000     
   0.5625000000000000         0.000000000000000         10000.00000000000      
    10000.00000000000         10000.00000000000     
   0.6250000000000000         0.000000000000000         10000.00000000000      
    10000.00000000000         10000.00000000000     
   0.6875000000000000         0.000000000000000         10000.00000000000      
    10000.00000000000         10000.00000000000     
   0.7500000000000000         0.000000000000000         10000.00000000000      
    10000.00000000000         10000.00000000000     
   0.8125000000000000         0.000000000000000         10000.00000000000      
    10000.00000000000         10000.00000000000     
   0.8750000000000000         0.000000000000000         10000.00000000000      
    10000.00000000000         10000.00000000000     
   0.9375000000000000         0.000000000000000         10000.00000000000      
    10000.00000000000         10000.00000000000     
    1.000000000000000         0.000000000000000       -0.4937061244779046      
    1.579865453404739        -2.508507441598725     
    1.062500000000000         0.000000000000000       -0.7435379794995255      
    1.523293510946740        -2.841343119514371     
    1.125000000000000         0.000000000000000       -0.7841890883842266      
    1.461423093746997        -2.920628483067746     
    1.187500000000000         0.000000000000000       -0.7989344669971244      
    1.416633564179205        -2.945235355157238     
    1.250000000000000         0.000000000000000       -0.8140772563023594      
    1.366750035084390        -3.169141531337896     
    1.312500000000000         0.000000000000000       -0.8201392384832580      
    1.280171580403008        -3.420620193806212     
    1.375000000000000         0.000000000000000       -0.8049177216972057      
    1.238012329199347        -3.439215929140363     
    1.437500000000000         0.000000000000000       -0.7697602670961126      
    1.311364669483215        -3.296486376050073     
    1.500000000000000         0.000000000000000       -0.7155901825508740      
    1.326556350820648        -3.106233538180514     
    1.562500000000000         0.000000000000000       -0.6600688354940889      
    1.323166990050193        -2.922636321617235     
    1.625000000000000         0.000000000000000       -0.6123749611728894      
    1.389476001550516        -2.704267724034084     
    1.687500000000000         0.000000000000000       -0.5715572310602141      
    1.445629818982079        -2.586951499161615     
    1.750000000000000         0.000000000000000       -0.5316679917612213      
    1.522122506862864        -2.459912653795626     
    1.812500000000000         0.000000000000000       -0.4919708030646827      
    1.530808959763319        -2.424897450528412     
    1.875000000000000         0.000000000000000       -0.4578571044951545      
    1.439787409811732        -2.446604859103910     
    1.937500000000000         0.000000000000000       -0.4243263173910234      
    1.391429969200571        -2.422990131054208     
    2.000000000000000         0.000000000000000       -0.3950637347924275      
    1.406029852234072        -2.327421136376068     
    2.062500000000000         0.000000000000000       -0.3739520896138985      
    1.397980138680405        -2.173409767402876     
    2.125000000000000         0.000000000000000       -0.3494384072435877      
    1.397704274905130        -2.155365501627649     
    2.187500000000000         0.000000000000000       -0.3333561005504911      
    1.362457566092243        -2.165102301249017     
    2.250000000000000         0.000000000000000       -0.3123259125667588      
    1.399219871250830        -2.153802367217550     
    2.312500000000000         0.000000000000000       -0.2881097544582136      
    1.374681159318767        -2.139602748394628     
    2.375000000000000         0.000000000000000       -0.2681849112236903      
    1.395242615780648        -2.118167732564443     
    2.437500000000000         0.000000000000000       -0.2553595850534016      
    1.380611414667868        -2.125209564717634     
    2.500000000000000         0.000000000000000       -0.2414898642334837      
    1.380636673341005        -2.065607920083671     
    2.562500000000000         0.000000000000000       -0.2277602917524524      
    1.421601530617488        -2.025463822123439     
    2.625000000000000         0.000000000000000       -0.2144738530388275      
    1.445196894631856        -1.995202939899881     
    2.687500000000000         0.000000000000000       -0.2085488354869890      
    1.445567393921819        -1.943392337299328     
    2.750000000000000         0.000000000000000       -0.2013795390996872      
    1.471350340771557        -1.913449280715676     
    2.812500000000000         0.000000000000000       -0.1964682458781329      
    1.502462297497924        -1.960362658397690     
    2.875000000000000         0.000000000000000       -0.1914295757305387      
    1.536608198302108        -2.000814014053996     
    2.937500000000000         0.000000000000000       -0.1911577514163226      
    1.553483343643148        -1.997095532051240     
    3.000000000000000         0.000000000000000       -0.1900911034860534      
    1.561490011735038        -1.941078121696911     
    3.062500000000000         0.000000000000000       -0.1955869325994408      
    1.540106168056069        -1.869778406429104     
    3.125000000000000         0.000000000000000       -0.2040023432187922      
    1.497724969834065        -1.903916732390435     
    3.187500000000000         0.000000000000000       -0.2271619055969928      
    1.399463650036443        -1.912776022219825     
    3.250000000000000         0.000000000000000       -0.2630782409131444      
    1.270207942894883        -1.836383722282035     
    3.312500000000000         0.000000000000000         10000.00000000000      
    10000.00000000000         10000.00000000000     
    3.375000000000000         0.000000000000000         10000.00000000000      
    10000.00000000000         10000.00000000000     
    3.437500000000000         0.000000000000000         10000.00000000000      
    10000.00000000000         10000.00000000000     
    3.500000000000000         0.000000000000000         10000.00000000000      
    10000.00000000000         10000.00000000000     
    3.562500000000000         0.000000000000000         10000.00000000000      
    10000.00000000000         10000.00000000000     
    3.625000000000000         0.000000000000000         10000.00000000000      
    10000.00000000000         10000.00000000000     
    3.687500000000000         0.000000000000000         10000.00000000000      
    10000.00000000000         10000.00000000000     
    3.750000000000000         0.000000000000000         10000.00000000000      
    10000.00000000000         10000.00000000000     
    3.812500000000000         0.000000000000000         10000.00000000000      
    10000.00000000000         10000.00000000000     
    3.875000000000000         0.000000000000000         10000.00000000000      
    10000.00000000000         10000.00000000000     
    3.937500000000000         0.000000000000000         10000.00000000000      
    10000.00000000000         10000.00000000000     
    4.000000000000000         0.000000000000000         10000.00000000000      
    10000.00000000000         10000.00000000000     
    4.062500000000000         0.000000000000000         10000.00000000000      
    10000.00000000000         10000.00000000000     
    4.125000000000000         0.000000000000000         10000.00000000000      
    10000.00000000000         10000.00000000000     
    4.187500000000000         0.000000000000000         10000.00000000000      
    10000.00000000000         10000.00000000000     
    4.250000000000000         0.000000000000000         10000.00000000000      
    10000.00000000000         10000.00000000000     
    0.000000000000000        6.2500000000000000E-002    10000.00000000000      
    10000.00000000000         10000.00000000000     
   6.2500000000000000E-002   6.2500000000000000E-002    10000.00000000000      
    10000.00000000000         10000.00000000000     
   0.1250000000000000        6.2500000000000000E-002    10000.00000000000      
    10000.00000000000         10000.00000000000     
   0.1875000000000000        6.2500000000000000E-002    10000.00000000000      
    10000.00000000000         10000.00000000000     
   0.2500000000000000        6.2500000000000000E-002    10000.00000000000      
    10000.00000000000         10000.00000000000     
   0.3125000000000000        6.2500000000000000E-002    10000.00000000000      
    10000.00000000000         10000.00000000000     
   0.3750000000000000        6.2500000000000000E-002    10000.00000000000      
    10000.00000000000         10000.00000000000     
   0.4375000000000000        6.2500000000000000E-002    10000.00000000000      
    10000.00000000000         10000.00000000000     
   0.5000000000000000        6.2500000000000000E-002    10000.00000000000      
    10000.00000000000         10000.00000000000     
   0.5625000000000000        6.2500000000000000E-002    10000.00000000000      
    10000.00000000000         10000.00000000000     
   0.6250000000000000        6.2500000000000000E-002    10000.00000000000      
    10000.00000000000         10000.00000000000     
   0.6875000000000000        6.2500000000000000E-002    10000.00000000000      
    10000.00000000000         10000.00000000000     
   0.7500000000000000        6.2500000000000000E-002    10000.00000000000      
    10000.00000000000         10000.00000000000     
   0.8125000000000000        6.2500000000000000E-002    10000.00000000000      
    10000.00000000000         10000.00000000000     
   0.8750000000000000        6.2500000000000000E-002    10000.00000000000      
    10000.00000000000         10000.00000000000     
   0.9375000000000000        6.2500000000000000E-002    10000.00000000000      
    10000.00000000000         10000.00000000000     
    1.000000000000000        6.2500000000000000E-002  -0.7535339588914592      
    1.345066693378727        -2.937112067050049     
    1.062500000000000        6.2500000000000000E-002  -0.8405658714260230      
    1.472723746061143        -3.239543065832005     
    1.125000000000000        6.2500000000000000E-002  -0.7911469028199611      
    1.513056636519033        -2.883858205669629     
    1.187500000000000        6.2500000000000000E-002  -0.7942107253899529      
    1.443856941469559        -3.073418366027795     
    1.250000000000000        6.2500000000000000E-002  -0.7983039851843897      
    1.358548277841313        -3.214629994923738     
    1.312500000000000        6.2500000000000000E-002  -0.7998556843485501      
    1.259732101227571        -3.468727947728833     
    1.375000000000000        6.2500000000000000E-002  -0.7799674423978462      
    1.333181883609587        -3.464793018289581     
    1.437500000000000        6.2500000000000000E-002  -0.7394406713259324      
    1.379625312486337        -3.222193249332199     
    1.500000000000000        6.2500000000000000E-002  -0.6765875961031145      
    1.355035417522360        -3.088828457384517     
    1.562500000000000        6.2500000000000000E-002  -0.6193601201395562      
    1.370117387780231        -2.911231304573047     
    1.625000000000000        6.2500000000000000E-002  -0.5731665655383124      
    1.496866751960325        -2.694922724208672     
    1.687500000000000        6.2500000000000000E-002  -0.5396594890697335      
    1.490222432394447        -2.483020863793043     
    1.750000000000000        6.2500000000000000E-002  -0.5052336831824991      
    1.547685561605522        -2.393127002493621     
    1.812500000000000        6.2500000000000000E-002  -0.4636523962112118      
    1.552765063530322        -2.383341995396371     
    1.875000000000000        6.2500000000000000E-002  -0.4292848078984199      
    1.442105929464434        -2.432714974947591     
    1.937500000000000        6.2500000000000000E-002  -0.4036591523060258      
    1.472284725002027        -2.469956500662699     
    2.000000000000000        6.2500000000000000E-002  -0.3760035644768163      
    1.499895359396675        -2.371338570737872     
    2.062500000000000        6.2500000000000000E-002  -0.3617487137887223      
    1.439870292481034        -2.257775161712515     
    2.125000000000000        6.2500000000000000E-002  -0.3422022288941989      
    1.420321089993652        -2.223083213601041     
    2.187500000000000        6.2500000000000000E-002  -0.3295877301734996      
    1.391828748958637        -2.239509469510059     
    2.250000000000000        6.2500000000000000E-002  -0.3104808870374733      
    1.435603376897770        -2.136838598614072     
    2.312500000000000        6.2500000000000000E-002  -0.2797689925609564      
    1.420389399367658        -2.111669366654261     
    2.375000000000000        6.2500000000000000E-002  -0.2611467888224567      
    1.424784091811186        -2.081552386218561     
    2.437500000000000        6.2500000000000000E-002  -0.2491633798975432      
    1.420211314256037        -2.063027023720586     
    2.500000000000000        6.2500000000000000E-002  -0.2341285835487683      
    1.423631284206278        -2.057624924615630     
    2.562500000000000        6.2500000000000000E-002  -0.2228648929349589      
    1.454255657337286        -1.997358738835263     
    2.625000000000000        6.2500000000000000E-002  -0.2105600850397814      
    1.461955783240726        -1.944370916728823     
    2.687500000000000        6.2500000000000000E-002  -0.2049848259294459      
    1.475212748625347        -1.946805624638178     
    2.750000000000000        6.2500000000000000E-002  -0.1982021573582882      
    1.519610282533052        -1.916869387591810     
    2.812500000000000        6.2500000000000000E-002  -0.1938019136046476      
    1.557504209324985        -1.948211758139635     
    2.875000000000000        6.2500000000000000E-002  -0.1911858299196016      
    1.563274871242717        -1.982383911771345     
    2.937500000000000        6.2500000000000000E-002  -0.1920619230458921      
    1.559667821151374        -1.996792261309407     
    3.000000000000000        6.2500000000000000E-002  -0.1909969991377660      
    1.563173476533558        -1.946253030558075     
    3.062500000000000        6.2500000000000000E-002  -0.1974102709752940      
    1.540403189796301        -1.901261691064045     
    3.125000000000000        6.2500000000000000E-002  -0.2016593591234422      
    1.493499430739001        -1.916527492711782     
    3.187500000000000        6.2500000000000000E-002  -0.2392183353980967      
    1.397850161489901        -1.977634715700009     
    3.250000000000000        6.2500000000000000E-002  -0.2927391088205382      
    1.229013290088131        -1.872132524745049     
    3.312500000000000        6.2500000000000000E-002    10000.00000000000      
    10000.00000000000         10000.00000000000     
    3.375000000000000        6.2500000000000000E-002    10000.00000000000      
    10000.00000000000         10000.00000000000     
    3.437500000000000        6.2500000000000000E-002    10000.00000000000      
    10000.00000000000         10000.00000000000     
    3.500000000000000        6.2500000000000000E-002    10000.00000000000      
    10000.00000000000         10000.00000000000     
    3.562500000000000        6.2500000000000000E-002    10000.00000000000      
    10000.00000000000         10000.00000000000     
    3.625000000000000        6.2500000000000000E-002    10000.00000000000      
    10000.00000000000         10000.00000000000     
    3.687500000000000        6.2500000000000000E-002    10000.00000000000      
    10000.00000000000         10000.00000000000     
    3.750000000000000        6.2500000000000000E-002    10000.00000000000      
    10000.00000000000         10000.00000000000     
    3.812500000000000        6.2500000000000000E-002    10000.00000000000      
    10000.00000000000         10000.00000000000     
    3.875000000000000        6.2500000000000000E-002    10000.00000000000      
    10000.00000000000         10000.00000000000     
    3.937500000000000        6.2500000000000000E-002    10000.00000000000      
    10000.00000000000         10000.00000000000     
    4.000000000000000        6.2500000000000000E-002    10000.00000000000      
    10000.00000000000         10000.00000000000     
    4.062500000000000        6.2500000000000000E-002    10000.00000000000      
    10000.00000000000         10000.00000000000     
    4.125000000000000        6.2500000000000000E-002    10000.00000000000      
    10000.00000000000         10000.00000000000     
    4.187500000000000        6.2500000000000000E-002    10000.00000000000      
    10000.00000000000         10000.00000000000     
    4.250000000000000        6.2500000000000000E-002    10000.00000000000      
    10000.00000000000         10000.00000000000     
    0.000000000000000        0.1250000000000000         10000.00000000000      
    10000.00000000000         10000.00000000000     
   6.2500000000000000E-002   0.1250000000000000         10000.00000000000      
    10000.00000000000         10000.00000000000     
   0.1250000000000000        0.1250000000000000         10000.00000000000      
    10000.00000000000         10000.00000000000     
   0.1875000000000000        0.1250000000000000         10000.00000000000      
    10000.00000000000         10000.00000000000     
   0.2500000000000000        0.1250000000000000         10000.00000000000      
    10000.00000000000         10000.00000000000     
   0.3125000000000000        0.1250000000000000         10000.00000000000      
    10000.00000000000         10000.00000000000     
   0.3750000000000000        0.1250000000000000         10000.00000000000      
    10000.00000000000         10000.00000000000     
   0.4375000000000000        0.1250000000000000         10000.00000000000      
    10000.00000000000         10000.00000000000     
   0.5000000000000000        0.1250000000000000         10000.00000000000      
    10000.00000000000         10000.00000000000     
   0.5625000000000000        0.1250000000000000         10000.00000000000      
    10000.00000000000         10000.00000000000     
   0.6250000000000000        0.1250000000000000         10000.00000000000      
    10000.00000000000         10000.00000000000     
   0.6875000000000000        0.1250000000000000         10000.00000000000      
    10000.00000000000         10000.00000000000     
   0.7500000000000000        0.1250000000000000         10000.00000000000      
    10000.00000000000         10000.00000000000     
   0.8125000000000000        0.1250000000000000         10000.00000000000      
    10000.00000000000         10000.00000000000     
   0.8750000000000000        0.1250000000000000         10000.00000000000      
    10000.00000000000         10000.00000000000     
   0.9375000000000000        0.1250000000000000         10000.00000000000      
    10000.00000000000         10000.00000000000     
    1.000000000000000        0.1250000000000000       -0.8067853110159648      
    1.363427173565081        -2.921027784357947     
    1.062500000000000        0.1250000000000000       -0.8773372575243185      
    1.642643521137398        -3.069104443676266     
    1.125000000000000        0.1250000000000000       -0.8344405231991642      
    1.524194227667839        -3.092097496988884     
    1.187500000000000        0.1250000000000000       -0.8323592505947324      
    1.291229053379108        -2.958068618451540     
    1.250000000000000        0.1250000000000000       -0.8445897008204855      
    1.277685872526835        -3.271678610579182     
    1.312500000000000        0.1250000000000000       -0.8634951914361417      
    1.234821305909985        -3.554923983582261     
    1.375000000000000        0.1250000000000000       -0.8434000771551164      
    1.401890493044901        -3.463556420628651     
    1.437500000000000        0.1250000000000000       -0.8093681434415881      
    1.350143285836302        -3.286029508633662     
    1.500000000000000        0.1250000000000000       -0.7520342353345538      
    1.269627293128418        -3.237255514831195     
    1.562500000000000        0.1250000000000000       -0.6931915883665679      
    1.296966525956432        -2.982055338600379     
    1.625000000000000        0.1250000000000000       -0.6540048717074367      
    1.349934854660394        -2.885306343501548     
    1.687500000000000        0.1250000000000000       -0.6176590920401294      
    1.491440773676651        -2.712345853005127     
    1.750000000000000        0.1250000000000000       -0.5788909839006761      
    1.654032310874271        -2.627495111437649     
    1.812500000000000        0.1250000000000000       -0.5483937168229644      
    1.468894951868743        -2.620418261066510     
    1.875000000000000        0.1250000000000000       -0.5096002881845401      
    1.388945085112065        -2.666208734186412     
    1.937500000000000        0.1250000000000000       -0.4728307388405968      
    1.359731742366329        -2.586769520496803     
    2.000000000000000        0.1250000000000000       -0.4400921720327953      
    1.360447064617078        -2.521334163290346     
    2.062500000000000        0.1250000000000000       -0.4083597812265704      
    1.399335292144877        -2.253400773889807     
    2.125000000000000        0.1250000000000000       -0.3762052622748668      
    1.405352715848274        -2.285807851150224     
    2.187500000000000        0.1250000000000000       -0.3570355464189751      
    1.468739472065413        -2.440170733252065     
    2.250000000000000        0.1250000000000000       -0.3341637733517401      
    1.509880054439035        -2.348504912803601     
    2.312500000000000        0.1250000000000000       -0.3043193463708226      
    1.403602634485042        -2.181629794490666     
    2.375000000000000        0.1250000000000000       -0.2823219157200921      
    1.413896247204312        -2.047081718979443     
    2.437500000000000        0.1250000000000000       -0.2659153011957213      
    1.497001293425431        -2.116863237228295     
    2.500000000000000        0.1250000000000000       -0.2552506526373304      
    1.465446241239449        -2.134101305168976     
    2.562500000000000        0.1250000000000000       -0.2446085853067452      
    1.448456761992662        -2.072542877142736     
    2.625000000000000        0.1250000000000000       -0.2291580435417376      
    1.484580265874429        -2.033932685333931     
    2.687500000000000        0.1250000000000000       -0.2215444673734110      
    1.441804694953439        -2.011846409301316     
    2.750000000000000        0.1250000000000000       -0.2144705652930939      
    1.479852597604439        -1.950929377002741     
    2.812500000000000        0.1250000000000000       -0.2112851500048165      
    1.506891818247914        -2.027583870917054     
    2.875000000000000        0.1250000000000000       -0.2079629169449287      
    1.532817511374877        -2.060421186385272     
    2.937500000000000        0.1250000000000000       -0.2054130652510684      
    1.532757548028125        -2.032575501015788     
    3.000000000000000        0.1250000000000000       -0.2034029529792886      
    1.539056903001338        -1.939281143200996     
    3.062500000000000        0.1250000000000000       -0.2067610771321632      
    1.539456251612725        -1.930062125296321     
    3.125000000000000        0.1250000000000000       -0.2093938634530851      
    1.483975044703443        -2.004037198810394     
    3.187500000000000        0.1250000000000000       -0.2409777064794316      
    1.370651755719825        -2.015569085899264     
    3.250000000000000        0.1250000000000000       -0.2783678183072001      
    1.236842933764146        -1.828218173833395     
    3.312500000000000        0.1250000000000000         10000.00000000000      
    10000.00000000000         10000.00000000000     
    3.375000000000000        0.1250000000000000         10000.00000000000      
    10000.00000000000         10000.00000000000     
    3.437500000000000        0.1250000000000000         10000.00000000000      
    10000.00000000000         10000.00000000000     
    3.500000000000000        0.1250000000000000         10000.00000000000      
    10000.00000000000         10000.00000000000     
    3.562500000000000        0.1250000000000000         10000.00000000000      
    10000.00000000000         10000.00000000000     
    3.625000000000000        0.1250000000000000         10000.00000000000      
    10000.00000000000         10000.00000000000     
    3.687500000000000        0.1250000000000000         10000.00000000000      
    10000.00000000000         10000.00000000000     
    3.750000000000000        0.1250000000000000         10000.00000000000      
    10000.00000000000         10000.00000000000     
    3.812500000000000        0.1250000000000000         10000.00000000000      
    10000.00000000000         10000.00000000000     
    3.875000000000000        0.1250000000000000         10000.00000000000      
    10000.00000000000         10000.00000000000     
    3.937500000000000        0.1250000000000000         10000.00000000000      
    10000.00000000000         10000.00000000000     
    4.000000000000000        0.1250000000000000         10000.00000000000      
    10000.00000000000         10000.00000000000     
    4.062500000000000        0.1250000000000000         10000.00000000000      
    10000.00000000000         10000.00000000000     
    4.125000000000000        0.1250000000000000         10000.00000000000      
    10000.00000000000         10000.00000000000     
    4.187500000000000        0.1250000000000000         10000.00000000000      
    10000.00000000000         10000.00000000000     
    4.250000000000000        0.1250000000000000         10000.00000000000      
    10000.00000000000         10000.00000000000     
    0.000000000000000        0.1875000000000000         10000.00000000000      
    10000.00000000000         10000.00000000000     
   6.2500000000000000E-002   0.1875000000000000         10000.00000000000      
    10000.00000000000         10000.00000000000     
   0.1250000000000000        0.1875000000000000         10000.00000000000      
    10000.00000000000         10000.00000000000     
   0.1875000000000000        0.1875000000000000         10000.00000000000      
    10000.00000000000         10000.00000000000     
   0.2500000000000000        0.1875000000000000         10000.00000000000      
    10000.00000000000         10000.00000000000     
   0.3125000000000000        0.1875000000000000         10000.00000000000      
    10000.00000000000         10000.00000000000     
   0.3750000000000000        0.1875000000000000         10000.00000000000      
    10000.00000000000         10000.00000000000     
   0.4375000000000000        0.1875000000000000         10000.00000000000      
    10000.00000000000         10000.00000000000     
   0.5000000000000000        0.1875000000000000         10000.00000000000      
    10000.00000000000         10000.00000000000     
   0.5625000000000000        0.1875000000000000         10000.00000000000      
    10000.00000000000         10000.00000000000     
   0.6250000000000000        0.1875000000000000         10000.00000000000      
    10000.00000000000         10000.00000000000     
   0.6875000000000000        0.1875000000000000         10000.00000000000      
    10000.00000000000         10000.00000000000     
   0.7500000000000000        0.1875000000000000         10000.00000000000      
    10000.00000000000         10000.00000000000     
   0.8125000000000000        0.1875000000000000         10000.00000000000      
    10000.00000000000         10000.00000000000     